% Model:              Untitled.mph          
% Version:            COMSOL 6.0.0.318      
% Date:               May 13 2026, 10:53    
% Dimension:          2                     
% Nodes:              896                   
% Elements:           1640                  
% Expressions:        0                     
% Description:                              
% Length unit:        m                     
% Coordinates
0.3904418663597146       0.4034667436252504       
0                        0.6                      
0                        0                        
0.6001622694807462       0                        
0.4442059073250102       0.8938995359372773       
0                        1.2                      
0.4524044454956677       1.481838078000597        
0                        1.8                      
0.9076134771598138       0.5231381372618128       
1.200324538961649        0                        
0.9147756264680199       1.154954219721134        
1.336481417628073        0.9208129179506117       
0.9105829689882228       1.637621878932001        
0.5361031443938952       2.09871223665521         
0                        2.4                      
0.4102508454406119       2.613019379654007        
0                        3                        
1.528596598401733        0.4856944441338761       
1.800486808442552        0                        
1.819760413620534        0.9801355442615888       
1.437365542211333        1.472414770244504        
1.183432156272474        2.056971228350297        
0.9149888132678552       2.566384661614827        
0.6001622695413088       3                        
2.107077302541152        0.490792603134457        
2.400649077923455        0                        
2.393770518928873        0.9868388130278315       
2.069821101853062        1.489588305633615        
1.773879497411666        2.00518999672469         
1.482002866539661        2.515877270136502        
1.200324539082618        3                        
2.699052258934793        0.4928851615198843       
3.000811347404357        0                        
2.993650055440638        0.9868872832570895       
2.679386667905952        1.487849428469412        
2.381860144929886        1.995629616711275        
2.088795172663581        2.500658789271952        
1.800486808623927        3                        
3.298152869490802        0.4938854768405553       
3.60097361688526         0                        
3.59531637793623         0.9912714939921324       
3.290554842711642        1.490431752866978        
2.98845769975871         1.993272589644551        
2.692291927553066        2.497588050688363        
2.400649078165235        3                        
3.898685870470439        0.4948822033082143       
4.201135886366163        0                        
4.196899408756481        0.9927197732352266       
3.894315856082324        1.491775759687118        
3.592325698791554        1.992405718915344        
3.294653548163945        2.496341385766112        
3.000811347706544        3                        
4.499262105861171        0.4954513898540375       
4.801298155847066        0                        
4.797895354295198        0.9934387335904958       
4.496220841656162        1.49260883940844         
4.194678076784894        1.992043409376465        
3.896860993649828        2.496097135853744        
3.600973617247853        3                        
5.099656163246907        0.4957728260833649       
5.401460425327969        0                        
5.398545538536905        0.9938220476802511       
5.097403747199899        1.493304126356962        
4.796347440286299        1.993197201428532        
4.498034035016535        2.496447014447563        
4.201135886789161        3                        
5.699965290763415        0.4959199604488194       
6.001622694808871        0                        
5.999088355722832        0.9940011199126535       
5.698285353875305        1.493766537804423        
5.397522979669898        1.993969348659869        
5.098474431681663        2.496869275475682        
4.80129815633047         3                        
6.300316656772297        0.4960047345157891       
6.601784964289774        0                        
6.599708382619578        0.9941750017036136       
6.299079497257901        1.494064485015451        
5.998635968566045        1.994678951928228        
5.699054026054459        2.496952250319775        
5.401460425871779        3                        
6.900776635799872        0.4961623440610521       
7.201947233770677        0                        
7.200579919749701        0.9944791262141375       
6.899963775282571        1.494309172635952        
6.599341500066529        1.994738915663859        
6.2994914432942          2.496800977263101        
6.001622695413087        3                        
7.501437136209834        0.4964126554664467       
7.80210950325158         0                        
7.801934514404426        0.9948565362037667       
7.50122547696223         1.494639678313527        
7.200376800088851        1.994881844020205        
6.900450470823714        2.496896829780771        
6.601784964954396        3                        
8.102498910062449        0.4966544957584493       
8.402271772732483        0                        
8.404200402350513        0.9950581437799074       
8.103208120850672        1.494961833206761        
7.801823633114769        1.995280769172244        
7.501302118604741        2.497095761226317        
7.201947234495704        3                        
8.704293005268946        0.496630546230879        
9.002434042213386        0                        
9.008099299542742        0.9944921091426809       
8.706523067982632        1.494957340160328        
8.403995150297364        1.995614416727928        
8.102335536436868        2.497330506286852        
7.802109504037013        3                        
9.30728704998624         0.4956679420427129       
9.602596311694288        0                        
9.61494463726685         0.9917838626558743       
9.312301714049726        1.494109335826747        
9.007639585636937        1.995848981324212        
8.703990112052798        2.497642625133965        
8.402271773578322        3                        
14.7791608605421         1.430541345933373        
14.77200418872952        1.398423614594164        
14.82021950857671        1.412370239623731        
9.91198794851155         0.492162822996235        
10.20275858117519        0                        
14.80537252851495        1.453954942248555        
14.74098618309228        1.430981488796123        
14.76319708405959        1.454188856760417        
10.22742697057521        0.983173706618739        
9.922870705767801        1.491438038354401        
9.613732988101395        1.996135683322989        
9.306576184618583        2.498186081448193        
9.002434043119631        3                        
14.79778023923375        1.371220648196042        
14.84383096031704        1.375055087960731        
14.71955156868272        1.398546068085728        
14.75111827936941        1.366992077335215        
14.77796268509895        1.341889553771027        
10.51710883517992        0.4826292783370402       
10.80292085065609        0                        
14.8                     1.5                      
14.7671144172277         1.487635571791           
14.68912136806493        1.436765094698627        
14.72348757844675        1.467853901051658        
14.80537216427982        1.546043518141849        
14.7594997322761         1.535003893075825        
10.84224782339236        0.9618777275764417       
10.54589631933085        1.486250090229534        
10.22366965103797        1.997881514968608        
9.9100692329861          2.500003543080475        
9.602596312660941        3                        
14.82154581331088        1.33259331589138         
14.87505470830357        1.343831264067051        
14.66237801816875        1.39803817562529         
14.69983586430376        1.360766913828044        
14.73900151178398        1.330847952916522        
14.77990027535071        1.307550234620774        
11.11458045177856        0.4589399146804111       
11.42830436133555        0.8816218433644258       
11.40308281991373        0                        
14.7163806756231         1.511020385417871        
14.6267123075811         1.441939393466482        
14.59756578612456        1.397410275623589        
14.66412574261291        1.486532008845909        
14.82021971708151        1.587630188141696        
14.77302677560609        1.578568126334184        
14.71358065188167        1.545886141356546        
14.7301689079038         1.57659927067563         
11.21885303546095        1.477646498943743        
11.7578218391647         1.263057193764747        
10.84045885487301        2.005577142273139        
10.51418346937098        2.504441763677578        
10.20275858220225        3                        
14.81385342149802        1.292858592994076        
14.86242915951301        1.295743205956533        
14.91236981041572        1.32021971778467         
14.91533466779835        1.276376536091434        
14.95395648113992        1.305372164449735        
14.64148121425543        1.352801308049268        
14.5739039249547         1.348565225241648        
14.68486399168547        1.319038342859793        
14.73053152909666        1.290122036163761        
14.77739095111403        1.269569180623212        
11.69381802019372        0.4275106388045593       
11.98533898476605        0.8287429716833508       
11.991268116121          0                        
14.52447926296856        1.395948993658034        
14.67311255016563        1.532208094569866        
14.55524448750021        1.446125245032098        
14.59241126843554        1.488030342447666        
14.62819972545007        1.528567551506776        
14.84383126544579        1.624945293419703        
14.80567565758677        1.639327069323774        
14.77870758536631        1.613589526375672        
14.74436875016326        1.613470464548121        
14.68261349851522        1.577719551526484        
14.70792403898047        1.608947447212619        
12.30067776998387        1.254821009387031        
12.03954964177758        1.607642605901396        
11.69072083539561        1.692717262274266        
11.42597058721221        2.050569092335883        
11.11422301583799        2.516392287566174        
10.80292085174356        3                        
14.82696657210339        1.258377248334748        
14.87512163046695        1.24553750264522         
14.91761607987873        1.235679059913701        
14.96391817851379        1.253285158257223        
15                       1.3                      
15.02002931248256        1.253241052006389        
15.0460450576304         1.305372528486308        
14.49791951711073        1.3398457706147          
14.44750554211959        1.388290628372563        
14.62091836057621        1.305614286540103        
14.55439837753044        1.295694242546498        
14.67007317795949        1.269950672549895        
14.72297547625547        1.241507665088988        
14.77813157215398        1.222645716258268        
12.2399444978358         0.3957868247919998       
12.49146742008267        0.7496603199873421       
12.8068770190903         1.057100767866883        
12.51501294389629        0                        
14.87505508785158        1.656169039595635        
14.83164632510447        1.6810127828681          
14.47473632000161        1.455456817063607        
14.38567688696824        1.453084820950254        
14.63445068134693        1.573254165273545        
14.52187404785417        1.51591128480276         
14.57848284015749        1.556056088558486        
14.78012486369899        1.687491184659541        
14.75682297693684        1.650553235535865        
14.70950448902341        1.64973677245185         
14.65656956696896        1.628778759158225        
12.78413610082072        1.487917114356228        
13.13686530751289        1.268746318837563        
12.43304855918794        1.756020662268168        
12.0114090733626         2.064670920425561        
11.69872151054676        2.537765727110441        
11.40308282128143        3                        
15.15616873405777        1.37505470595979         
15.18996849773111        1.36020263856072         
15.1797802823725         1.412369810738172        
15.1249449117264         1.343830960066723        
15.16718023212044        1.332253148720146        
15.14938187095865        1.302991952620939        
15.07327707905871        1.2630850951158          
15.08762976005643        1.320219508420818        
15.11541803403347        1.291277853927819        
14.83179368956803        1.208130264585313        
14.89086145957128        1.193729227472341        
14.94192275393844        1.205598285932226        
14.98654044145897        1.216676197444819        
15.04818432470844        1.224631842739117        
15.02120185483544        1.209798003881766        
14.92283659096079        1.165149247487736        
15.08105474345333        1.213493153440711        
14.37326100154264        1.37420493784648         
14.27925316493451        1.42313746987878         
14.42919703456225        1.310985592618346        
14.49567991260235        1.285731476012812        
14.60102770519683        1.252624358468219        
14.53463442614734        1.239724021295458        
14.65626570078324        1.20879690403094         
14.78141925036044        1.168003378367215        
14.72058018871616        1.183902522118773        
12.70781173406693        0.3550975448978686       
12.94130615452862        0.6667911543383419       
13.19616455078671        0.9232057507883805       
13.44780703179184        1.118710215291887        
12.94380624151095        0                        
14.80117308945982        1.717766101635607        
14.76242175372943        1.732187473660762        
14.91237024106356        1.679780492125094        
14.8785954991672         1.715393537153517        
14.83391047054662        1.730040759331841        
14.95395494296221        1.694627471653891        
14.91703922838586        1.726563985773105        
14.33544734169098        1.517846839539645        
14.42125680069409        1.544421152204551        
14.58484873894528        1.625195132911689        
14.50911257891295        1.605378054408483        
14.72300937937661        1.704100444933141        
14.66096227774964        1.694519161924876        
14.60681865108909        1.679959794593368        
14.72043159621022        1.764556256495386        
14.19939503013073        1.558537015150344        
14.11474003266244        1.368850558194103        
14.02777829743179        1.550670783179131        
13.9131939871407         1.451377277417725        
13.44510096351703        1.401805839129888        
13.63739092082361        1.248818960179257        
13.70413449443071        1.437716337580371        
13.18606937856727        1.598024535638281        
12.91704594284519        1.908033129615292        
12.54547282633765        2.2130391939235          
12.24638304867836        2.594935924392118        
11.99127678610252        3                        
15.04604351850306        1.694627835634728        
15.08763018882664        1.679780282584624        
15.08001545931135        1.728737316171269        
15.19462783557958        1.453956481263851        
15.22634997615128        1.419411939774328        
15.22225326412487        1.378833319778277        
15.21907705261681        1.344490894038129        
15.20079294986368        1.320907867652345        
15.18182442838502        1.290530767460359        
15.15542951173878        1.257595116749672        
15.11441245051043        1.233361967734362        
15.11662550473407        1.177747317107056        
14.84180116228347        1.157035277675097        
14.88588856054567        1.137672490170796        
14.96225471632292        1.166622320676916        
15.0048255225927         1.170809228890205        
15.04535863371216        1.183541909250918        
14.93325546442567        1.122123913186403        
15.07855368680762        1.1562610858809          
14.30720114149405        1.272509005177329        
14.45401265930348        1.204809034563854        
14.56135794882135        1.162801061446909        
14.6581816495583         1.138432222372342        
14.78974119958731        1.112250042232706        
14.72651544185191        1.12402380644723         
13.11533314654723        0.3183469702695278       
13.32114467810165        0.5970522760868278       
13.52298711369495        0.8308337723087807       
13.88100013373059        1.248265809319883        
13.70788772698423        1.038163478428113        
14.13582614873634        1.150199213554741        
13.29724945186167        0                        
15.0344162639198         1.74408577544862         
15                       1.7                      
14.98477321821019        1.738211021149152        
14.94794389162667        1.743349109317923        
14.7624880130347         1.787615036845694        
14.72647185747767        1.806495156677835        
14.79729691439183        1.759670798262831        
14.89100212528659        1.759885035939126        
14.83111402481766        1.771013132531542        
14.85912012239997        1.754784964223524        
14.92493663545041        1.771143741832271        
14.90016287028303        1.797155092372921        
14.33453236247195        1.62273887695816         
14.42324598676363        1.635798127131897        
14.53905644979031        1.682372884008113        
14.47868865695417        1.678134558366632        
14.67093576752654        1.74977410982949         
14.61652141782593        1.745409643528431        
14.56568596635126        1.730062410962595        
14.68389147070031        1.804043192695395        
14.23823303656417        1.722476753527676        
14.05770304233965        1.704307947665245        
13.83811563311479        1.657830835812791        
13.51434381980722        1.65094239396498         
13.3187994179856         1.874188376591718        
13.20831158295553        2.150869872033817        
12.94969401714796        2.314149385798594        
12.71298916941369        2.640564912429539        
12.51503602846719        3                        
15.19462747156873        1.54604505739775         
15.21961859995456        1.567276943443271        
15.17978049179203        1.587629759619743        
15.23823501774834        1.543494969751594        
15.23775461133351        1.464767687220337        
15.2                     1.5                      
15.23294666537676        1.509432486905362        
15.26672334628718        1.422261937376629        
15.28689442068177        1.451547383540399        
15.20214601269399        1.614506154048073        
15.15616904079601        1.624944910648073        
15.22751871916377        1.594421067624603        
15.1723726079042         1.656432118663693        
15.12494529456186        1.656168733640409        
15.204442060113          1.642916405216474        
15.13257810889497        1.692122821806539        
15.16608021825905        1.684464919894406        
15.11798448298513        1.722796274711074        
15.07762052791862        1.770514142368491        
15.04536566664825        1.78923948505662         
15.11680794743604        1.76164903396149         
15.25696051721005        1.384282402268699        
15.25103757889718        1.345721323815846        
15.23328661620521        1.319356375361895        
15.22414595788634        1.283072935138437        
15.20317036470794        1.239408688033971        
15.16700995419304        1.189438983515833        
15.14548291094863        1.145632319426927        
15.11323928249137        1.128296392643602        
14.84319133084644        1.096970256559142        
14.89575575240534        1.080286800359404        
14.97886549892531        1.118690871935747        
15.03076542666183        1.12642538922452         
14.94937272983306        1.068139184561888        
15.07578971372228        1.098149559722571        
14.34255957176495        1.092490887314674        
14.50666444646446        1.068880135747892        
14.60612044083927        1.087356116776877        
14.67825017633784        1.063712923413325        
14.79721225823157        1.059245171319923        
14.74855350159979        1.068064078768331        
13.46695761909159        0.285961632841236        
13.64545278538272        0.5374678867249368       
13.82309082310608        0.7741508614868725       
13.97989020538569        0.9853593070100987       
14.22570120744296        0.9505651149326458       
13.62630696570529        0                        
15.00711289979282        1.787296271909828        
14.96240090465705        1.782865560947755        
15.03342415435697        1.828083159247407        
14.70972096448864        1.838919328034215        
14.75288519379217        1.838032434904154        
14.80426412849563        1.81297677482701         
14.86097848825427        1.797592366012504        
14.93107079246325        1.817043666642797        
14.89101451490049        1.843926970216211        
14.39167334725562        1.735072722313398        
14.50070774905891        1.746934174745546        
14.63208560498843        1.804151648351715        
14.56551020131267        1.795334768468964        
14.6655791039091         1.858597616703838        
14.30253764055009        1.879113956539711        
14.12922232102696        1.877443323348515        
13.93610297317142        1.862123435623142        
13.67203594245942        1.921854448344953        
13.88007517838695        2.049070840540958        
13.47377479057019        2.16331905224044         
13.28180621638297        2.4207119688977          
13.08802126070302        2.662853920020019        
12.94384111180537        3                        
15.2912168526588         1.390542949761016        
15.25793129949995        1.564793862822665        
15.2767111297213         1.529958899989417        
15.28325027715106        1.488201306597432        
15.31576663606072        1.419244977905848        
15.32634554141616        1.462327117802247        
15.24281975160515        1.62261862713147         
15.27661997258235        1.594266131195037        
15.21022642579105        1.673665623919102        
15.25175610938196        1.65434946832601         
15.1665329224437         1.71751096824135         
15.20973328117571        1.707658338390937        
15.16240107285424        1.753556492882816        
15.07726606323212        1.819371247587646        
15.11700800387995        1.804715251084315        
15.1590590240527         1.791894450581713        
15.2906073339031         1.350400661864027        
15.27137954176202        1.302588856164719        
15.26104939068246        1.22912316020659         
15.22046522688148        1.173050411024782        
15.18647596905416        1.129997566687692        
15.14735196558986        1.097814407385124        
15.11046943770516        1.069931595776649        
14.85071393829044        1.030594857134555        
14.91211248830298        1.026220083120038        
15.0112038993914         1.050267908053078        
14.96504327554769        1.011245530716655        
15.06974471389809        1.039520984547356        
14.4462466768489         0.942203016145448        
14.60948308579956        0.9893602256891076       
14.75189522040146        0.9804700404132434       
13.79625868695095        0.2629026639661239       
13.97340652127891        0.5015658937221115       
14.10801759364321        0.751725153562487        
14.34166704827868        0.7814131120084267       
14.47737753554294        0.8140413039520924       
13.94658522836674        0                        
14.98229719096466        1.841292629609411        
15.0708569291093         1.866466172684431        
15.02643810044395        1.870949510566008        
14.71977719656398        1.887428239189854        
14.78390774937553        1.882019036587022        
14.84255619500491        1.863478703454005        
14.93867852799987        1.880661273420229        
14.89076290133514        1.913457767925493        
14.4637679984264         1.860312608924161        
14.58890943330654        1.878511488607665        
14.65984769470066        1.942329303956567        
14.3838697716945         2.02793705661069         
14.21199878162136        2.054098717330561        
14.03637251794882        2.046076654507837        
13.74303978417976        2.195506203640642        
13.9394296629437         2.179468576228112        
13.59779752680561        2.437395939862782        
13.45340217803161        2.709235522239183        
13.29729591171754        3                        
15.3414695408327         1.371937132296153        
15.30862752405319        1.558997342425414        
15.33702897129753        1.512591528397808        
15.36587883715039        1.418569714375266        
15.38408801966837        1.462486131748728        
15.29162581415872        1.629989932837183        
15.33119672701335        1.594775954328886        
15.25742988365617        1.690305368712246        
15.30399272096766        1.666600852139583        
15.21052162253815        1.744554460689965        
15.25866754379026        1.729566488100668        
15.20648996640883        1.78511123058426         
15.11932109747961        1.85720927508461         
15.15202990041816        1.828768859266294        
15.19743273268235        1.82793358709165         
15.33199549668612        1.306811068246741        
15.32091665341162        1.244606702392491        
15.31010867916376        1.19180572841009         
15.27082846647556        1.158899875394204        
15.23954608719151        1.103184274766832        
15.20772768769215        1.057818939791937        
15.15104019863931        1.039629758274409        
15.11027069530745        1.012591092716975        
14.90065430996164        0.9400716040992062       
15.04337962115247        0.9520711001096426       
14.61482774694433        0.8472055816470937       
14.80215288516109        0.8273182861568048       
14.11803819088332        0.2532237902941123       
14.29584523465066        0.5251876800230609       
14.50826456623366        0.6844729835887006       
14.25763091574779        0                        
14.9922829857421         1.905688036123496        
15.11536658593157        1.908303198236057        
15.05516595700146        1.918848692064615        
14.74672182959832        1.964671411102251        
14.82488265010667        1.943782788798821        
14.95642357479561        1.955249541762183        
14.8904305065721         1.981530792588172        
14.54666599650198        2.010342985240746        
14.69142829136331        2.054423759851998        
14.31456650891974        2.187380631735225        
14.46368170414743        2.176373439893735        
14.11798665707867        2.259354957910769        
14.28752784756535        2.340105471942751        
13.90160850376021        2.426747700932331        
13.76282807240362        2.715768392417725        
13.62636538036664        3                        
15.39034944044328        1.314557039368181        
15.40739381420646        1.368946848673337        
15.3689989148096         1.552779606400521        
15.40955440190535        1.506041051355026        
15.42625465284473        1.415214126262122        
15.43775381569024        1.461538312746363        
15.34864849609295        1.634275820463532        
15.39154695945853        1.59531676281979         
15.31031545006761        1.710052333872928        
15.36351526286586        1.680419808395235        
15.25939208591458        1.773977304241316        
15.31510253349571        1.756619151746095        
15.25281873600125        1.821217212649351        
15.17699672928678        1.880875499813998        
15.23847263289707        1.862198285485442        
15.37792862080247        1.25094077097264         
15.42817749227053        1.267974975708575        
15.36291532534949        1.191934271548132        
15.33484766022264        1.134418815729921        
15.29259559315362        1.0956150745722          
15.26938128509186        1.026381804714569        
15.17937837548195        0.95998675605039         
14.95832346654233        0.8170980963297386       
15.09415275451182        0.8187252145793543       
14.71122224215738        0.67090794346914         
14.87599432495941        0.7081564509824065       
14.42820415665601        0.2428474326635909       
14.5933791320248         0.4609564692926499       
14.55985930395398        0                        
15.16566624546535        1.945740644286011        
15.02312235810489        1.981934921494961        
15.1041927522774         1.980679893719583        
14.82214236226715        2.053125701311165        
14.95535287629897        2.058263197048621        
14.61863310332512        2.172189051695209        
14.75455876178663        2.183884105806051        
14.42048170945295        2.329716437650191        
14.55009017941282        2.285839141478605        
14.18089706104372        2.499502320101629        
14.36080765776982        2.455043079076845        
14.05114654394252        2.721231191472055        
13.9466483015151         3                        
15.45785203330051        1.320081900119686        
15.46255838066715        1.373321179618615        
15.43620607626942        1.548877791963927        
15.47452382353363        1.495741677013967        
15.49359628034499        1.428286693375134        
15.41457216286449        1.643455632316802        
15.46243708300924        1.59968866785029         
15.37267267083624        1.731008163117961        
15.43089000908636        1.697126108275738        
15.31276663614632        1.806804291394482        
15.37680081421925        1.788306329749216        
15.2976509825026         1.866854992177873        
15.25068791013336        1.935974649247923        